Variables = "REACTION_PROGRESS","TEMPERATURE","massfraction-h2","massfraction-h","massfraction-o","massfraction-o2","massfraction-oh","massfraction-h2o","massfraction-ho2","massfraction-h2o2","massfraction-c","massfraction-ch","massfraction-ch2","massfraction-ch2<s>","massfraction-ch3","massfraction-ch4","massfraction-co","massfraction-co2","massfraction-hco","massfraction-ch2o","massfraction-ch2oh","massfraction-ch3o","massfraction-ch3oh","massfraction-c2h2","massfraction-c2h3","massfraction-c2h4","massfraction-c2h5","massfraction-c2h6","massfraction-hcco","massfraction-ch2co","massfraction-ch2cho","massfraction-n2","PREMIX_CDOT"
Zone T = "Z=0.0" 
0.0	750.0	0.0	0.0	0.0	0.2329999954	0.0	0.0	0.0	0.0	0.0	0.0	0.0	0.0	0.0	0.0	0.0	0.0	0.0	0.0	0.0	0.0	0.0	0.0	0.0	0.0	0.0	0.0	0.0	0.0	0.0	0.7670000196	0.0	
0.05624999851	750.0	0.0	0.0	0.0	0.2329999954	0.0	0.0	0.0	0.0	0.0	0.0	0.0	0.0	0.0	0.0	0.0	0.0	0.0	0.0	0.0	0.0	0.0	0.0	0.0	0.0	0.0	0.0	0.0	0.0	0.0	0.7670000196	0.0	
0.112499997	750.0	0.0	0.0	0.0	0.2329999954	0.0	0.0	0.0	0.0	0.0	0.0	0.0	0.0	0.0	0.0	0.0	0.0	0.0	0.0	0.0	0.0	0.0	0.0	0.0	0.0	0.0	0.0	0.0	0.0	0.0	0.7670000196	0.0	
0.1687499881	750.0	0.0	0.0	0.0	0.2329999954	0.0	0.0	0.0	0.0	0.0	0.0	0.0	0.0	0.0	0.0	0.0	0.0	0.0	0.0	0.0	0.0	0.0	0.0	0.0	0.0	0.0	0.0	0.0	0.0	0.0	0.7670000196	0.0	
0.224999994	750.0	0.0	0.0	0.0	0.2329999954	0.0	0.0	0.0	0.0	0.0	0.0	0.0	0.0	0.0	0.0	0.0	0.0	0.0	0.0	0.0	0.0	0.0	0.0	0.0	0.0	0.0	0.0	0.0	0.0	0.0	0.7670000196	0.0	
0.28125	750.0	0.0	0.0	0.0	0.2329999954	0.0	0.0	0.0	0.0	0.0	0.0	0.0	0.0	0.0	0.0	0.0	0.0	0.0	0.0	0.0	0.0	0.0	0.0	0.0	0.0	0.0	0.0	0.0	0.0	0.0	0.7670000196	0.0	
0.3374999762	750.0	0.0	0.0	0.0	0.2329999954	0.0	0.0	0.0	0.0	0.0	0.0	0.0	0.0	0.0	0.0	0.0	0.0	0.0	0.0	0.0	0.0	0.0	0.0	0.0	0.0	0.0	0.0	0.0	0.0	0.0	0.7670000196	0.0	
0.3937499821	750.0	0.0	0.0	0.0	0.2329999954	0.0	0.0	0.0	0.0	0.0	0.0	0.0	0.0	0.0	0.0	0.0	0.0	0.0	0.0	0.0	0.0	0.0	0.0	0.0	0.0	0.0	0.0	0.0	0.0	0.0	0.7670000196	0.0	
0.4499999881	750.0	0.0	0.0	0.0	0.2329999954	0.0	0.0	0.0	0.0	0.0	0.0	0.0	0.0	0.0	0.0	0.0	0.0	0.0	0.0	0.0	0.0	0.0	0.0	0.0	0.0	0.0	0.0	0.0	0.0	0.0	0.7670000196	0.0	
0.5062499642	750.0	0.0	0.0	0.0	0.2329999954	0.0	0.0	0.0	0.0	0.0	0.0	0.0	0.0	0.0	0.0	0.0	0.0	0.0	0.0	0.0	0.0	0.0	0.0	0.0	0.0	0.0	0.0	0.0	0.0	0.0	0.7670000196	0.0	
0.5625	750.0	0.0	0.0	0.0	0.2329999954	0.0	0.0	0.0	0.0	0.0	0.0	0.0	0.0	0.0	0.0	0.0	0.0	0.0	0.0	0.0	0.0	0.0	0.0	0.0	0.0	0.0	0.0	0.0	0.0	0.0	0.7670000196	0.0	
0.6187499762	750.0	0.0	0.0	0.0	0.2329999954	0.0	0.0	0.0	0.0	0.0	0.0	0.0	0.0	0.0	0.0	0.0	0.0	0.0	0.0	0.0	0.0	0.0	0.0	0.0	0.0	0.0	0.0	0.0	0.0	0.0	0.7670000196	0.0	
0.6749999523	750.0	0.0	0.0	0.0	0.2329999954	0.0	0.0	0.0	0.0	0.0	0.0	0.0	0.0	0.0	0.0	0.0	0.0	0.0	0.0	0.0	0.0	0.0	0.0	0.0	0.0	0.0	0.0	0.0	0.0	0.0	0.7670000196	0.0	
0.7312499881	750.0	0.0	0.0	0.0	0.2329999954	0.0	0.0	0.0	0.0	0.0	0.0	0.0	0.0	0.0	0.0	0.0	0.0	0.0	0.0	0.0	0.0	0.0	0.0	0.0	0.0	0.0	0.0	0.0	0.0	0.0	0.7670000196	0.0	
0.7874999642	750.0	0.0	0.0	0.0	0.2329999954	0.0	0.0	0.0	0.0	0.0	0.0	0.0	0.0	0.0	0.0	0.0	0.0	0.0	0.0	0.0	0.0	0.0	0.0	0.0	0.0	0.0	0.0	0.0	0.0	0.0	0.7670000196	0.0	
0.84375	750.0	0.0	0.0	0.0	0.2329999954	0.0	0.0	0.0	0.0	0.0	0.0	0.0	0.0	0.0	0.0	0.0	0.0	0.0	0.0	0.0	0.0	0.0	0.0	0.0	0.0	0.0	0.0	0.0	0.0	0.0	0.7670000196	0.0	
0.8999999762	750.0	0.0	0.0	0.0	0.2329999954	0.0	0.0	0.0	0.0	0.0	0.0	0.0	0.0	0.0	0.0	0.0	0.0	0.0	0.0	0.0	0.0	0.0	0.0	0.0	0.0	0.0	0.0	0.0	0.0	0.0	0.7670000196	0.0	
0.9508132339	750.0	0.0	0.0	0.0	0.2329999954	0.0	0.0	0.0	0.0	0.0	0.0	0.0	0.0	0.0	0.0	0.0	0.0	0.0	0.0	0.0	0.0	0.0	0.0	0.0	0.0	0.0	0.0	0.0	0.0	0.0	0.7670000196	0.0	
0.9604275227	750.0	0.0	0.0	0.0	0.2329999954	0.0	0.0	0.0	0.0	0.0	0.0	0.0	0.0	0.0	0.0	0.0	0.0	0.0	0.0	0.0	0.0	0.0	0.0	0.0	0.0	0.0	0.0	0.0	0.0	0.0	0.7670000196	0.0	
0.9668740034	750.0	0.0	0.0	0.0	0.2329999954	0.0	0.0	0.0	0.0	0.0	0.0	0.0	0.0	0.0	0.0	0.0	0.0	0.0	0.0	0.0	0.0	0.0	0.0	0.0	0.0	0.0	0.0	0.0	0.0	0.0	0.7670000196	0.0	
0.971860826	750.0	0.0	0.0	0.0	0.2329999954	0.0	0.0	0.0	0.0	0.0	0.0	0.0	0.0	0.0	0.0	0.0	0.0	0.0	0.0	0.0	0.0	0.0	0.0	0.0	0.0	0.0	0.0	0.0	0.0	0.0	0.7670000196	0.0	
0.9759835601	750.0	0.0	0.0	0.0	0.2329999954	0.0	0.0	0.0	0.0	0.0	0.0	0.0	0.0	0.0	0.0	0.0	0.0	0.0	0.0	0.0	0.0	0.0	0.0	0.0	0.0	0.0	0.0	0.0	0.0	0.0	0.7670000196	0.0	
0.9795270562	750.0	0.0	0.0	0.0	0.2329999954	0.0	0.0	0.0	0.0	0.0	0.0	0.0	0.0	0.0	0.0	0.0	0.0	0.0	0.0	0.0	0.0	0.0	0.0	0.0	0.0	0.0	0.0	0.0	0.0	0.0	0.7670000196	0.0	
0.9826516509	750.0	0.0	0.0	0.0	0.2329999954	0.0	0.0	0.0	0.0	0.0	0.0	0.0	0.0	0.0	0.0	0.0	0.0	0.0	0.0	0.0	0.0	0.0	0.0	0.0	0.0	0.0	0.0	0.0	0.0	0.0	0.7670000196	0.0	
0.9854574203	750.0	0.0	0.0	0.0	0.2329999954	0.0	0.0	0.0	0.0	0.0	0.0	0.0	0.0	0.0	0.0	0.0	0.0	0.0	0.0	0.0	0.0	0.0	0.0	0.0	0.0	0.0	0.0	0.0	0.0	0.0	0.7670000196	0.0	
0.9880111814	750.0	0.0	0.0	0.0	0.2329999954	0.0	0.0	0.0	0.0	0.0	0.0	0.0	0.0	0.0	0.0	0.0	0.0	0.0	0.0	0.0	0.0	0.0	0.0	0.0	0.0	0.0	0.0	0.0	0.0	0.0	0.7670000196	0.0	
0.9903602004	750.0	0.0	0.0	0.0	0.2329999954	0.0	0.0	0.0	0.0	0.0	0.0	0.0	0.0	0.0	0.0	0.0	0.0	0.0	0.0	0.0	0.0	0.0	0.0	0.0	0.0	0.0	0.0	0.0	0.0	0.0	0.7670000196	0.0	
0.9925391078	750.0	0.0	0.0	0.0	0.2329999954	0.0	0.0	0.0	0.0	0.0	0.0	0.0	0.0	0.0	0.0	0.0	0.0	0.0	0.0	0.0	0.0	0.0	0.0	0.0	0.0	0.0	0.0	0.0	0.0	0.0	0.7670000196	0.0	
0.9945741892	750.0	0.0	0.0	0.0	0.2329999954	0.0	0.0	0.0	0.0	0.0	0.0	0.0	0.0	0.0	0.0	0.0	0.0	0.0	0.0	0.0	0.0	0.0	0.0	0.0	0.0	0.0	0.0	0.0	0.0	0.0	0.7670000196	0.0	
0.9964857101	750.0	0.0	0.0	0.0	0.2329999954	0.0	0.0	0.0	0.0	0.0	0.0	0.0	0.0	0.0	0.0	0.0	0.0	0.0	0.0	0.0	0.0	0.0	0.0	0.0	0.0	0.0	0.0	0.0	0.0	0.0	0.7670000196	0.0	
0.9982899427	750.0	0.0	0.0	0.0	0.2329999954	0.0	0.0	0.0	0.0	0.0	0.0	0.0	0.0	0.0	0.0	0.0	0.0	0.0	0.0	0.0	0.0	0.0	0.0	0.0	0.0	0.0	0.0	0.0	0.0	0.0	0.7670000196	0.0	
1.0	750.0	0.0	0.0	0.0	0.2329999954	0.0	0.0	0.0	0.0	0.0	0.0	0.0	0.0	0.0	0.0	0.0	0.0	0.0	0.0	0.0	0.0	0.0	0.0	0.0	0.0	0.0	0.0	0.0	0.0	0.0	0.7670000196	0.0	
Zone T = "Z=0.01192237" 
0.0	735.6546021	0.0	0.0	0.0	0.2302220762	0.0	0.0	0.0	0.0	0.0	0.0	0.0	0.0	0.0	0.01192237157	0.0	0.0	0.0	0.0	0.0	0.0	0.0	0.0	0.0	0.0	0.0	0.0	0.0	0.0	0.0	0.7578555346	0.0	
0.05624999851	763.1022949	1.753587094e-05	6.017675691e-09	1.474869293e-07	0.2274031192	5.080001984e-07	0.001776143559	8.395542864e-06	1.620646231e-06	2.932288322e-19	6.539705064e-15	1.870827521e-10	2.074228463e-11	1.23432028e-06	0.01102642994	0.0007846122608	0.001055123634	2.175881697e-09	2.337453043e-05	5.929750441e-11	8.4111619e-08	2.639704689e-06	4.257991804e-06	1.9454377e-10	1.787852489e-05	3.385121872e-08	1.570067252e-05	5.572713957e-10	5.589758985e-06	1.88824778e-08	0.7578555346	10.17650318	
0.112499997	790.6995239	3.170608397e-05	1.357673352e-08	3.327517675e-07	0.2245724201	1.146108275e-06	0.003560611513	1.88069298e-05	3.570395165e-06	6.615671632e-19	1.475453298e-14	4.220860883e-10	4.679763174e-11	2.753095032e-06	0.01014837623	0.001556396252	0.002123075537	4.909106011e-09	4.682622239e-05	1.337838312e-10	1.897309829e-07	5.331828106e-06	6.453888091e-06	4.3891904e-10	3.079582893e-05	7.637323307e-08	2.478497845e-05	1.257285609e-09	1.073760086e-05	4.26016129e-08	0.7578555346	22.4998703	
0.1687499881	818.296814	4.587629883e-05	2.113579001e-08	5.180165772e-07	0.221741721	1.784216352e-06	0.005345079117	2.921831401e-05	5.520143986e-06	1.029905417e-18	2.296935835e-14	6.570893829e-10	7.285297365e-11	4.271869784e-06	0.009270322509	0.002328180009	0.003191027325	7.642329436e-09	7.027791435e-05	2.082701511e-10	2.953503326e-07	8.023950613e-06	8.649783922e-06	6.832942545e-10	4.371313116e-05	1.188952439e-07	3.386928074e-05	1.957299878e-09	1.588544183e-05	6.632074445e-08	0.7578555346	34.37520218	
0.224999994	845.894104	6.004651368e-05	2.869484916e-08	7.032814437e-07	0.2189110368	2.422324542e-06	0.007129547186	3.962970004e-05	7.469892807e-06	1.398243774e-18	3.118418542e-14	8.920926775e-10	9.890831904e-11	5.790644536e-06	0.008392268792	0.003099964	0.004258979578	1.037555375e-08	9.372960631e-05	2.827564849e-10	4.009696966e-07	1.071607403e-05	1.084568066e-05	9.276695523e-10	5.663043339e-05	1.614172618e-07	4.295358667e-05	2.657313924e-09	2.10332837e-05	9.00398831e-08	0.7578555346	45.8692627	
0.28125	873.491394	7.421673217e-05	3.625390832e-08	8.885463103e-07	0.2160803378	3.060432618e-06	0.008914015256	5.004108607e-05	9.419642083e-06	1.76658213e-18	3.939901248e-14	1.127095972e-09	1.249636644e-10	7.309419289e-06	0.00751421554	0.003871747991	0.005326931365	1.310877806e-08	0.0001171812983	3.572427909e-10	5.065890605e-07	1.340819745e-05	1.304157649e-05	1.172044795e-09	6.954773562e-05	2.039392797e-07	5.20378926e-05	3.357328193e-09	2.618112558e-05	1.137590218e-07	0.7578555346	57.04778671	
0.3374999762	901.088623	8.838693611e-05	4.381296392e-08	1.073811063e-06	0.2132496387	3.698540695e-06	0.01069848239	6.04524721e-05	1.136939045e-05	2.134920281e-18	4.761383955e-14	1.362099211e-09	1.510190029e-10	8.828193131e-06	0.006636161823	0.004643531516	0.006394883152	1.584200149e-08	0.0001406329829	4.317290969e-10	6.12208396e-07	1.610031904e-05	1.523747233e-05	1.416419981e-09	8.246503421e-05	2.464612692e-07	6.112219125e-05	4.057342462e-09	3.132896745e-05	1.374781533e-07	0.7578555346	67.97658539	
0.3937499821	928.6859131	0.0001025571546	5.137201953e-08	1.25907593e-06	0.2104189396	4.336648544e-06	0.01248295046	7.086385449e-05	1.331913973e-05	2.503258637e-18	5.582866661e-14	1.597102561e-09	1.770743552e-10	1.034696834e-05	0.005758108106	0.00541531574	0.007462834939	1.857522491e-08	0.0001640846749	5.062154584e-10	7.178277315e-07	1.879244337e-05	1.743336907e-05	1.660795279e-09	9.538234008e-05	2.889833013e-07	7.020650082e-05	4.757356731e-09	3.647680933e-05	1.61197292e-07	0.7578555346	78.72291565	
0.4499999881	956.2832031	0.0001167273731	5.893107868e-08	1.444340796e-06	0.2075882405	4.974756848e-06	0.01426741853	8.127524052e-05	1.526888809e-05	2.871596994e-18	6.404349707e-14	1.832105911e-09	2.031296936e-10	1.186574264e-05	0.004880054388	0.006187099498	0.008530787192	2.130844834e-08	0.0001875363669	5.807017645e-10	8.234471238e-07	2.148456588e-05	1.962926581e-05	1.905170466e-09	0.0001082996459	3.31505305e-07	7.929080311e-05	5.457371e-09	4.16246512e-05	1.849164306e-07	0.7578555346	89.35691833	
0.5062499642	983.8804932	0.0001308975916	6.649013784e-08	1.629605663e-06	0.2047575563	5.612865152e-06	0.0160518866	9.168662655e-05	1.721863737e-05	3.239935351e-18	7.225832075e-14	2.067109151e-09	2.291850459e-10	1.338451784e-05	0.004002000671	0.006958883721	0.009598738514	2.404167354e-08	0.0002109880588	6.551880705e-10	9.290665162e-07	2.41766902e-05	2.182516255e-05	2.149545875e-09	0.0001212169518	3.740273371e-07	8.837510541e-05	6.157385268e-09	4.677249308e-05	2.086355551e-07	0.7578555346	99.95329285	
0.5625	1011.477722	0.0001450677955	7.4049197e-08	1.814870529e-06	0.2019268572	6.250973001e-06	0.01783635467	0.0001020980199	1.916838664e-05	3.608273915e-18	8.04731512e-14	2.302112501e-09	2.552403844e-10	1.490329214e-05	0.003123946954	0.007730667479	0.01066669077	2.677489697e-08	0.0002344397508	7.29674432e-10	1.034685852e-06	2.686881271e-05	2.402105747e-05	2.393921061e-09	0.0001341342577	4.165493408e-07	9.745941497e-05	6.857399537e-09	5.192033495e-05	2.323546937e-07	0.7578555346	110.5931015	
0.6187499762	1039.170776	0.000152904453	1.538532217e-07	1.045649242e-05	0.199103415	1.579661875e-05	0.01958245039	0.0001109390287	2.047545058e-05	1.063403543e-16	1.360632527e-13	2.455508685e-09	2.712188252e-10	1.558780059e-05	0.002300557448	0.00836803019	0.0118690636	2.834671164e-08	0.0002447930747	7.841454153e-10	1.08212771e-06	2.806378507e-05	2.491388113e-05	2.510595287e-09	0.0001396290609	4.355511578e-07	0.0001012039284	7.430442039e-09	5.421477908e-05	2.431609687e-07	0.7578555346	163.1952209	
0.6749999523	1067.359253	0.0001279931312	6.072034466e-07	6.282213144e-05	0.1963175386	7.139913214e-05	0.02113014646	0.0001116603453	1.845947736e-05	7.383492498e-16	4.366095701e-13	2.186950399e-09	2.350941386e-10	1.195869754e-05	0.001759811305	0.008310360834	0.0137664685	2.391340281e-08	0.0001874206791	7.351261821e-10	8.287602782e-07	2.151766239e-05	1.906910074e-05	1.966985685e-09	0.0001067454941	3.329405729e-07	7.733879465e-05	7.346970587e-09	4.175559661e-05	1.872007118e-07	0.7578555346	390.9599609	
0.7312499881	1095.547729	0.0001030818166	1.060553586e-06	0.0001151877586	0.1935316622	0.0001270016364	0.02267784253	0.0001123816692	1.644350596e-05	1.370358066e-15	7.371558333e-13	1.918392334e-09	1.989694659e-10	8.329593584e-06	0.001219065161	0.008252692409	0.01566387154	1.948009576e-08	0.0001300482836	6.861070045e-10	5.753928463e-07	1.497153971e-05	1.322432217e-05	1.423375973e-09	7.386192738e-05	2.303300022e-07	5.347366823e-05	7.26349958e-09	2.929641414e-05	1.312404549e-07	0.7578555346	550.7338257	
0.7874999642	1123.736206	7.817049482e-05	1.513903726e-06	0.0001675533858	0.1907457709	0.0001826041407	0.0242255386	0.0001131029858	1.442753364e-05	2.002366829e-15	1.037702151e-12	1.649834158e-09	1.628447793e-10	4.700489626e-06	0.0006783190183	0.008195023052	0.01756127551	1.504678693e-08	7.267589535e-05	6.370877714e-10	3.220253859e-07	8.425417946e-06	7.37954224e-06	8.797663709e-10	4.097836063e-05	1.277194315e-07	2.960854181e-05	7.180028128e-09	1.683723167e-05	7.528019097e-08	0.7578555346	646.1605835	
0.84375	1151.924561	5.3259173e-05	1.967253866e-06	0.0002199190203	0.1879598945	0.0002382066596	0.0257732328	0.0001138243097	1.241156133e-05	2.634375592e-15	1.338248414e-12	1.381275982e-09	1.267200928e-10	1.071385668e-06	0.0001375728461	0.008137354627	0.01945867948	1.06134781e-08	1.530349437e-05	5.880685383e-10	6.865790425e-08	1.879295269e-06	1.534762305e-06	3.361566581e-10	8.094791156e-06	2.510884833e-08	5.743410384e-06	7.09655712e-09	4.378048743e-06	1.931991989e-08	0.7578555346	680.423584	
0.8999999762	1181.028687	3.0631134e-05	1.690258728e-06	0.0002215922432	0.185775578	0.0002505497541	0.02632303908	9.501928434e-05	1.019518822e-05	8.263726225e-17	4.576335716e-14	4.992004726e-11	4.087397521e-12	6.889116833e-09	2.364614744e-07	0.005724268965	0.02371150255	9.034244464e-10	5.042421591e-08	1.901842919e-11	2.114769054e-10	9.939335577e-09	6.485576964e-09	4.426111387e-12	3.608370713e-09	4.044266658e-12	3.99674174e-12	4.206981985e-10	8.488453318e-08	1.726133958e-10	0.7578555346	453.3215027	
0.9508132339	1209.275391	1.215869361e-05	5.255257634e-07	0.0001106026248	0.1841397583	0.0001682728325	0.02655649744	5.31601836e-05	5.780130778e-06	2.651643453e-20	3.966953408e-17	1.125493131e-13	7.263282959e-15	1.801101802e-11	4.965591827e-10	0.002816411434	0.02828128077	9.423620911e-11	1.212217271e-10	3.01480981e-14	3.100593512e-13	2.708978007e-11	3.426012946e-11	3.329834111e-15	3.632037813e-12	1.365602929e-15	3.912523799e-16	2.130505191e-12	7.000225954e-10	3.491082206e-13	0.7578555346	149.7532806	
0.9604275227	1214.605103	9.116687579e-06	3.581107251e-07	8.65750917e-05	0.1838408262	0.0001476993784	0.02659915574	4.379685925e-05	4.793581411e-06	2.62759354e-21	5.590245398e-18	2.10205456e-14	1.243897e-15	3.473732369e-12	8.970169746e-11	0.002265908988	0.02914622985	5.149350391e-11	2.314286436e-11	4.984525467e-15	5.056662012e-14	5.378494958e-12	8.56692061e-12	4.521440697e-16	5.398969032e-13	1.430891567e-16	3.340982494e-17	4.933032064e-13	1.878041611e-10	6.357124571e-14	0.7578555346	105.7492523	
0.9668740034	1218.155151	7.220832686e-06	2.628734137e-07	7.080731302e-05	0.183641836	0.0001331003295	0.02662680671	3.732352343e-05	4.116868695e-06	4.405372899e-22	1.245059023e-18	5.775337873e-15	3.195779077e-16	9.773938386e-13	2.399305581e-11	0.001896782895	0.02972619981	3.170442034e-11	6.59444244e-12	1.245481057e-15	1.250927225e-14	1.551109284e-12	2.998898872e-12	9.773080042e-17	1.243674624e-13	2.4938483e-17	5.0704542e-18	1.58041657e-13	6.724656249e-11	1.69201472e-14	0.7578555346	79.75918579	
0.971860826	1220.886841	5.839247933e-06	1.984408442e-07	5.891819819e-05	0.1834886521	0.0001213067953	0.02664764784	3.221604129e-05	3.586543471e-06	8.284851361e-23	3.107530153e-19	1.752231435e-15	9.11267757e-17	3.040719803e-13	7.111835426e-12	0.001611241838	0.03017483838	2.030403276e-11	2.144005459e-12	3.456517259e-16	3.439522125e-15	4.946798722e-13	1.165498687e-12	2.374186202e-17	3.189742781e-14	4.85339539e-18	8.747593176e-19	5.494550941e-14	2.594438726e-11	4.913562741e-15	0.7578555346	61.73447037	
0.9759835601	1223.133911	4.763744528e-06	1.518995845e-07	4.937850463e-05	0.1833625734	0.0001111064776	0.02666448802	2.791919724e-05	3.143281447e-06	1.839516188e-23	8.892810032e-20	5.916638957e-16	2.924555289e-17	1.054010733e-13	2.363581986e-12	0.001375175081	0.03054574691	1.329840144e-11	8.086971847e-13	1.083189373e-16	1.069337591e-15	1.753648225e-13	4.978870506e-13	6.663707458e-18	9.317663964e-15	1.108420677e-18	1.815164619e-19	2.07175958e-14	1.07132107e-11	1.575655241e-15	0.7578555346	48.24549484	
0.9795270562	1225.056274	3.893680969e-06	1.169678114e-07	4.144148261e-05	0.183254689	0.0001018916519	0.02667868137	2.416554889e-05	2.758157734e-06	5.007428308e-24	2.971913246e-20	2.247263112e-16	1.07014217e-17	4.105845506e-14	8.905856196e-13	0.001172273303	0.03086454421	8.831776456e-12	3.550215135e-13	3.889544523e-17	3.815834194e-16	6.957452057e-14	2.32280395e-13	2.203400289e-18	3.160105226e-15	3.083653843e-19	4.705520635e-20	8.538347912e-15	4.750981292e-12	5.684040004e-16	0.7578555346	37.70386124	
0.9826516509	1226.745483	3.16689875e-06	8.965307785e-08	3.464970359e-05	0.1831599176	9.334102651e-05	0.02669104934	2.080854028e-05	2.414718665e-06	1.152667777e-24	9.046920404e-21	7.997172236e-17	3.650633007e-18	1.513014804e-14	3.154436076e-13	0.0009933594847	0.03114565276	5.806414377e-12	1.588654203e-13	1.296642089e-17	1.262184838e-16	2.620743995e-14	1.063376614e-13	6.657647429e-19	9.789466821e-16	7.312889246e-20	1.018409584e-20	3.327411597e-15	2.014165527e-12	1.878603536e-16	0.7578555346	29.2576561	
0.9854574203	1228.258911	2.536683041e-06	6.701795741e-08	2.86669474e-05	0.1830750406	8.541165153e-05	0.0267020762	1.776761201e-05	2.104041641e-06	1.514796841e-25	1.831074752e-21	2.026890617e-17	8.764683761e-19	4.088811843e-15	8.053608914e-14	0.0008327066898	0.03139807284	3.56360449e-12	6.460987073e-14	3.01168913e-18	2.896876172e-17	7.315953161e-15	4.02929575e-14	1.359957693e-19	2.028009031e-16	1.00469963e-20	1.243148861e-21	9.492732121e-16	6.512306428e-13	4.133248144e-17	0.7578555346	22.43391228	
0.9880111814	1229.630371	2.016939106e-06	5.053120944e-08	2.350364593e-05	0.1829984337	7.733308303e-05	0.02671207674	1.492721549e-05	1.812569167e-06	7.308705075e-26	9.138952325e-22	1.037039725e-17	4.459098555e-19	2.11665042e-15	4.137371056e-14	0.0006864777533	0.03162782267	2.354011517e-12	3.864553941e-14	1.526591289e-18	1.465978285e-17	3.805678374e-15	2.247909398e-14	6.821788239e-20	1.013824256e-16	4.860584365e-21	5.986009835e-22	4.914650331e-16	3.442034797e-13	2.065316465e-17	0.7578555346	16.73700905	
0.9903602004	1230.891602	1.542245741e-06	3.559117445e-08	1.877028444e-05	0.1829280257	6.980654871e-05	0.02672129683	1.230846647e-05	1.543296662e-06	4.766400049e-27	1.130913897e-22	1.715372723e-18	6.956548239e-20	3.910162694e-16	7.122759346e-15	0.0005519727711	0.03183915466	1.274390966e-12	1.570447704e-14	2.287732645e-19	2.156440625e-18	7.33276846e-16	6.815110627e-15	9.02347258e-21	1.282395888e-17	3.399293527e-22	3.720614497e-23	9.087216289e-17	7.519307984e-14	2.596312941e-18	0.7578555346	12.14234161	
0.9925391078	1232.059448	1.156601911e-06	2.537010069e-08	1.463809804e-05	0.1828637272	6.127832603e-05	0.02673018351	9.781076187e-06	1.274627152e-06	2.632083714e-27	6.307586648e-23	9.62197168e-19	3.895659763e-20	2.200488232e-16	4.001193907e-15	0.0004272114893	0.03203518316	8.065096442e-13	9.651464401e-15	1.28026763e-19	1.20603533e-18	4.131803159e-16	3.955672239e-15	5.045898268e-21	7.149913468e-18	1.884677812e-22	2.54840269e-23	5.097374463e-17	4.237462567e-14	1.444442431e-18	0.7578555346	8.243889809	
0.9945741892	1233.150024	7.964223414e-07	1.582392883e-08	1.077876186e-05	0.1828036755	5.331323337e-05	0.02673848346	7.420570455e-06	1.023698132e-06	6.386974956e-28	1.636289053e-23	2.587542448e-19	1.036883661e-20	6.037044028e-17	1.085746631e-15	0.0003106882505	0.03221826255	3.695227989e-13	3.998136119e-15	3.393259986e-20	3.183859278e-19	1.142199577e-16	1.285043531e-15	1.330965614e-21	1.850527935e-18	4.700730626e-23	1.453592812e-23	1.370983706e-17	1.172319179e-14	3.686305067e-19	0.7578555346	5.212641716	
0.9964857101	1234.188599	5.007492518e-07	9.260962663e-09	7.181619367e-06	0.1827496737	4.175194044e-05	0.02674811892	5.016729119e-06	7.308607337e-07	2.247441831e-29	9.941971587e-25	2.37677085e-20	8.612850511e-22	6.559419008e-18	1.0800128e-16	0.0002012337791	0.03239023685	1.63775284e-13	1.560286146e-15	2.695566339e-21	2.420246139e-20	1.312899083e-17	3.058646296e-16	1.002059211e-22	1.086760229e-19	1.198924707e-24	7.930016361e-24	1.26097646e-18	1.355038628e-15	1.704746056e-20	0.7578555346	2.640630484	
0.9982899427	1235.175781	2.425139769e-07	4.241050178e-09	3.800082595e-06	0.1826998889	2.884622518e-05	0.02675811201	2.656658125e-06	4.265432096e-07	5.466909231e-29	4.190937944e-25	1.001917105e-20	3.630668324e-22	2.765084876e-18	4.552719704e-17	9.792243509e-05	0.03255256265	6.961214916e-14	6.628567502e-16	1.13631382e-21	1.020229785e-20	5.534462819e-18	1.289685748e-16	4.224051327e-23	4.581097485e-20	5.066400985e-25	3.492050964e-24	5.315531376e-19	5.712036031e-16	7.186138842e-21	0.7578555346	0.8852203488	
1.0	1239.322998	0.0	0.0	6.506915007e-09	0.1826608777	1.309633149e-06	0.02677584812	1.786998283e-08	0.0	0.0	0.0	0.0	0.0	0.0	0.0	0.0	0.03270641342	0.0	0.0	0.0	0.0	0.0	0.0	0.0	0.0	0.0	0.0	0.0	0.0	0.0	0.7578555942	0.0	
Zone T = "Z=0.02187545" 
0.0	724.2559814	0.0	0.0	0.0	0.2279030085	0.0	0.0	0.0	0.0	0.0	0.0	0.0	0.0	0.0	0.02187545411	0.0	0.0	0.0	0.0	0.0	0.0	0.0	0.0	0.0	0.0	0.0	0.0	0.0	0.0	0.0	0.7502215505	0.0	
0.05624999851	772.7255249	3.616773392e-05	2.285336187e-08	2.906846817e-07	0.2227310836	8.828325235e-07	0.00326355407	1.127085034e-05	2.211687843e-06	1.702789507e-17	1.118544344e-13	9.974538973e-10	1.041434924e-10	4.715035175e-06	0.0201982446	0.001467828522	0.001907726517	1.004354289e-08	5.020454773e-05	3.549867345e-10	1.394652571e-07	5.20382082e-06	9.253340977e-06	1.365571878e-09	4.030562195e-05	1.616959509e-07	3.731926336e-05	2.883049133e-09	1.18371745e-05	3.277023453e-08	0.7502215505	25.08127022	
0.112499997	821.2540283	6.76097261e-05	5.10548368e-08	6.493954174e-07	0.2175394446	1.9722454e-06	0.006542251911	2.49571367e-05	4.798234841e-06	3.80406831e-17	2.498852091e-13	2.228333296e-09	2.32658795e-10	1.048145805e-05	0.01854327321	0.00292072189	0.003830387956	2.243748476e-08	0.000102280268	7.930479051e-10	3.114573701e-07	1.058146245e-05	1.537247954e-05	3.050716568e-09	7.40298201e-05	3.612320256e-07	6.551785191e-05	6.440793232e-09	2.330383177e-05	7.320934969e-08	0.7502215505	53.4018364	
0.1687499881	869.7825317	9.905172192e-05	7.925631706e-08	1.00810621e-06	0.2123478204	3.06165839e-06	0.009820950218	3.86434258e-05	7.384782293e-06	5.90534761e-17	3.879159906e-13	3.459213138e-09	3.611741184e-10	1.624788274e-05	0.01688830368	0.004373615608	0.005753049627	3.483143018e-08	0.000154355992	1.231109104e-09	4.834494689e-07	1.595910362e-05	2.149161992e-05	4.735861481e-09	0.0001077540146	5.607681146e-07	9.371645137e-05	9.998537109e-09	3.477048813e-05	1.136484755e-07	0.7502215505	79.26091003	
0.224999994	918.3109741	0.0001304937032	1.074577867e-07	1.366816832e-06	0.2071561813	4.151071153e-06	0.01309964713	5.232970943e-05	9.971328836e-06	8.006625918e-17	5.259467449e-13	4.690092315e-09	4.896894001e-10	2.20143047e-05	0.01523333229	0.005826508626	0.007675711066	4.722537028e-08	0.0002064316941	1.669170246e-09	6.554415677e-07	2.13367457e-05	2.761075848e-05	6.421005505e-09	0.0001414782018	7.603042036e-07	0.0001219150436	1.355628054e-08	4.623714267e-05	1.540875871e-07	0.7502215505	103.1089249	
0.28125	966.8394775	0.0001619356917	1.356592634e-07	1.725527454e-06	0.2019645572	5.240483915e-06	0.01637834497	6.601599307e-05	1.255787629e-05	1.010790423e-16	6.639774993e-13	5.920971713e-09	6.182046541e-10	2.778072667e-05	0.01357836183	0.007279401645	0.009598372504	5.961931038e-08	0.0002585074108	2.107231278e-09	8.274336665e-07	2.671438597e-05	3.372989886e-05	8.106149529e-09	0.0001752023963	9.598402357e-07	0.0001501136285	1.711402398e-08	5.770379721e-05	1.945267059e-07	0.7502215505	125.3840027	
0.3374999762	1015.367981	0.0001933776948	1.638607472e-07	2.084238304e-06	0.1967729181	6.329897133e-06	0.01965704374	7.970228762e-05	1.514442374e-05	1.220918452e-16	8.020083621e-13	7.151851555e-09	7.467200192e-10	3.354715227e-05	0.01192339044	0.008732295595	0.01152103394	7.201325758e-08	0.0003105831565	2.545292643e-09	9.994258789e-07	3.209202987e-05	3.984903742e-05	9.791294886e-09	0.0002089266054	1.159376438e-06	0.0001783122279	2.067177007e-08	6.917046267e-05	2.349658388e-07	0.7502215505	146.5260162	
0.3937499821	1063.896484	0.0002248196834	1.920622168e-07	2.442948926e-06	0.1915812939	7.419309895e-06	0.02293574065	9.338856762e-05	1.773097028e-05	1.431046283e-16	9.400390622e-13	8.382730954e-09	8.752353287e-10	3.931357423e-05	0.01026841998	0.01018518861	0.01344369538	8.440719768e-08	0.0003626588732	2.983353786e-09	1.171417921e-06	3.746966831e-05	4.596817598e-05	1.147643935e-08	0.0002426507999	1.358912527e-06	0.0002065108274	2.422951262e-08	8.063711721e-05	2.754049433e-07	0.7502215505	166.9915924	
0.4499999881	1112.424927	0.0002562616719	2.202637006e-07	2.801659775e-06	0.1863896549	8.508722203e-06	0.02621443756	0.0001070748549	2.031751683e-05	1.641174113e-16	1.078069817e-12	9.613610352e-09	1.003750638e-09	4.50799962e-05	0.008613449521	0.01163808256	0.01536635682	9.680113777e-08	0.0004147345608	3.421414929e-09	1.343409963e-06	4.28473104e-05	5.208731454e-05	1.316158382e-08	0.0002763749799	1.558448503e-06	0.0002347094123	2.778725694e-08	9.210377175e-05	3.15844062e-07	0.7502215505	187.2699585	
0.5062499642	1160.953491	0.000287703675	2.484651702e-07	3.160370625e-06	0.1811980158	9.598135875e-06	0.02949313633	0.0001207611494	2.290406519e-05	1.851302076e-16	1.216100679e-12	1.084449064e-08	1.132265948e-09	5.08464218e-05	0.00695847813	0.01309097651	0.01728901826	1.09195085e-07	0.0004668103065	3.859476294e-09	1.515402118e-06	4.822495248e-05	5.820645674e-05	1.484672918e-08	0.0003100991889	1.757984705e-06	0.0002629080263	3.134500304e-08	0.0001035704263	3.562831807e-07	0.7502215505	207.8994293	
0.5625	1207.600586	0.0002729678235	2.534615078e-06	0.0001174344361	0.175970763	0.0001434048172	0.03249054775	0.0001237643155	2.13004314e-05	6.44679839e-13	4.556952732e-11	1.385917159e-08	1.422332474e-09	4.608293602e-05	0.005701848306	0.01373692695	0.02001862228	1.234276965e-07	0.0004219809198	5.170349482e-09	1.370664904e-06	4.359431477e-05	5.251569746e-05	1.456090892e-08	0.0002797234338	1.587608381e-06	0.000236982276	4.48053008e-08	9.398860857e-05	3.244582274e-07	0.7502215505	966.1896362	
0.6187499762	1253.543335	0.000240944064	5.666089237e-06	0.0002743557852	0.1707301736	0.0003268978035	0.03538265452	0.0001227679604	1.812809023e-05	1.530450788e-12	1.06476182e-10	1.754166767e-08	1.772880176e-09	3.737728912e-05	0.004594347905	0.01408077683	0.02305032872	1.383486818e-07	0.0003408725024	6.80798351e-09	1.107351636e-06	3.521680628e-05	4.240358612e-05	1.353720602e-08	0.0002253501298	1.278745458e-06	0.0001907936239	6.197288371e-08	7.652672502e-05	2.655792173e-07	0.7502215505	1812.158691	
0.6749999523	1299.486084	0.000208920319	8.797562259e-06	0.0004312771198	0.1654895842	0.0005103907315	0.03827476129	0.0001217716053	1.495575088e-05	2.41622152e-12	1.673828159e-10	2.122416198e-08	2.123427878e-09	2.867164767e-05	0.003486847738	0.01442462765	0.02608203143	1.53269653e-07	0.0002597640851	8.445617539e-09	8.440382544e-07	2.683929779e-05	3.229147842e-05	1.251350223e-08	0.0001709768403	9.698825352e-07	0.000144605001	7.914047018e-08	5.906484876e-05	2.067002498e-07	0.7502215505	2458.055664	
0.7312499881	1345.428833	0.0001768965449	1.19290371e-05	0.0005881984835	0.1602489799	0.0006938837469	0.04116686806	0.0001207752575	1.178340881e-05	3.301992577e-12	2.282894845e-10	2.490665985e-08	2.473975691e-09	1.996600076e-05	0.002379347105	0.01476847753	0.02911373787	1.681906241e-07	0.0001786556531	1.008325157e-08	5.807248726e-07	1.846178748e-05	2.217936344e-05	1.148979933e-08	0.0001166035217	6.610195555e-07	9.841634164e-05	9.630805664e-08	4.160296157e-05	1.478212539e-07	0.7502215505	2920.03125	
0.7874999642	1391.371582	0.0001448727999	1.506051012e-05	0.000745119818	0.1550083905	0.000877376704	0.04405897111	0.0001197789097	8.611069461e-06	4.187762984e-12	2.891961115e-10	2.858915416e-08	2.82452306e-09	1.126036022e-05	0.001271847053	0.01511232741	0.03214544058	1.831115952e-07	9.754725761e-05	1.17208856e-08	3.174115761e-07	1.008428171e-05	1.206725574e-05	1.046609555e-08	6.223023229e-05	3.521566896e-07	5.222771506e-05	1.134756431e-07	2.414108531e-05	8.894228642e-08	0.7502215505	3210.822266	
0.84375	1437.314331	0.0001128490476	1.819198405e-05	0.0009020411526	0.1497678012	0.001060869661	0.04695107788	0.0001187825546	5.438728294e-06	5.073534041e-12	3.501027801e-10	3.227165024e-08	3.175070873e-09	2.554716275e-06	0.000164346653	0.01545617823	0.03517714515	1.980325663e-07	1.643883479e-05	1.335851962e-08	5.409822279e-08	1.706773332e-06	1.955143944e-06	9.442392646e-09	7.856928278e-06	4.329374548e-08	6.039073014e-06	1.306432296e-07	6.679201761e-06	3.006329408e-08	0.7502215505	3340.080322	
0.8999999762	1486.495483	7.134711632e-05	1.628397695e-05	0.0009425146854	0.1457685232	0.001178594539	0.04769415036	9.361661068e-05	3.674080745e-06	1.403202099e-13	1.022030377e-11	9.940238632e-10	9.026337316e-11	3.54322367e-08	4.27456655e-07	0.01050348114	0.04350539669	1.335695465e-08	1.462725692e-07	3.39545142e-10	3.968662898e-10	1.343598033e-08	2.563269952e-08	1.526512111e-10	1.023338658e-08	1.349206771e-11	8.872497355e-12	6.652586482e-09	2.083793191e-07	3.868655951e-10	0.7502215505	2148.451172	